16   
1    

1    
 -0.0141421356237310   0.0000000000000000   0.0141421356237310
   0.0040194981   -0.0000724206   -0.0040194981
  -0.0002780219    0.0000009494    0.0002780219
   0.0002515281    0.0001454894    0.0001325819
  -0.0001316019   -0.0001464106   -0.0002522381
  -0.0001325819    0.0001454894   -0.0002515281
   0.0002522381   -0.0001464106    0.0001316019
   0.0000139381   -0.0000006306   -0.0000139381
  -0.0000357619    0.0000003694    0.0000357619
  -0.0017435619    0.0014187594    0.0017435619
  -0.0016975019   -0.0013558706    0.0016975019
  -0.0003301819    0.0000053694    0.0003366019
   0.0000740681    0.0000000694   -0.0000748181
  -0.0003366019    0.0000053694    0.0003301819
   0.0000748181    0.0000000694   -0.0000740681
  -0.0000001819   -0.0000746106    0.0000001819
  -0.0000000919    0.0000744194    0.0000000919
