phonopy:
  version: "2.43.6"
  calculator: qe
  frequency_unit_conversion_factor: 15.633302
  symmetry_tolerance: 1.00000e-05
  configuration:
    cell_filename: "si.ph0.in"
    create_displacements: ".true."
    dim: "2 2 2"
    calculator: "qe"

physical_unit:
  atomic_mass: "AMU"
  length: "au"

space_group:
  type: "Fd-3m"
  number: 227
  Hall_symbol: "F 4d 2 3 -1d"

supercell_matrix:
- [   2,   0,   0 ]
- [   0,   2,   0 ]
- [   0,   0,   2 ]

primitive_cell:
  lattice:
  - [    -5.131250000000000,     0.000000000000000,     5.131250000000000 ] # a
  - [     0.000000000000000,     5.131250000000000,     5.131250000000000 ] # b
  - [    -5.131250000000000,     5.131250000000000,     0.000000000000000 ] # c
  points:
  - symbol: Si # 1
    coordinates: [  0.000000000000000,  0.000000000000000,  0.000000000000000 ]
    mass: 28.085500
  - symbol: Si # 2
    coordinates: [  0.250000000000000,  0.250000000000000,  0.250000000000000 ]
    mass: 28.085500
  reciprocal_lattice: # without 2pi
  - [    -0.097442143727162,    -0.097442143727162,     0.097442143727162 ] # a*
  - [     0.097442143727162,     0.097442143727162,     0.097442143727162 ] # b*
  - [    -0.097442143727162,     0.097442143727162,    -0.097442143727162 ] # c*

unit_cell:
  lattice:
  - [    -5.131250000000000,     0.000000000000000,     5.131250000000000 ] # a
  - [     0.000000000000000,     5.131250000000000,     5.131250000000000 ] # b
  - [    -5.131250000000000,     5.131250000000000,     0.000000000000000 ] # c
  points:
  - symbol: Si # 1
    coordinates: [  0.000000000000000,  0.000000000000000,  0.000000000000000 ]
    mass: 28.085500
    reduced_to: 1
  - symbol: Si # 2
    coordinates: [  0.250000000000000,  0.250000000000000,  0.250000000000000 ]
    mass: 28.085500
    reduced_to: 2

supercell:
  lattice:
  - [   -10.262499999999999,     0.000000000000000,    10.262499999999999 ] # a
  - [     0.000000000000000,    10.262499999999999,    10.262499999999999 ] # b
  - [   -10.262499999999999,    10.262499999999999,     0.000000000000000 ] # c
  points:
  - symbol: Si # 1
    coordinates: [  0.000000000000000,  0.000000000000000,  0.000000000000000 ]
    mass: 28.085500
    reduced_to: 1
  - symbol: Si # 2
    coordinates: [  0.500000000000000,  0.000000000000000,  0.000000000000000 ]
    mass: 28.085500
    reduced_to: 1
  - symbol: Si # 3
    coordinates: [  0.000000000000000,  0.500000000000000,  0.000000000000000 ]
    mass: 28.085500
    reduced_to: 1
  - symbol: Si # 4
    coordinates: [  0.500000000000000,  0.500000000000000,  0.000000000000000 ]
    mass: 28.085500
    reduced_to: 1
  - symbol: Si # 5
    coordinates: [  0.000000000000000,  0.000000000000000,  0.500000000000000 ]
    mass: 28.085500
    reduced_to: 1
  - symbol: Si # 6
    coordinates: [  0.500000000000000,  0.000000000000000,  0.500000000000000 ]
    mass: 28.085500
    reduced_to: 1
  - symbol: Si # 7
    coordinates: [  0.000000000000000,  0.500000000000000,  0.500000000000000 ]
    mass: 28.085500
    reduced_to: 1
  - symbol: Si # 8
    coordinates: [  0.500000000000000,  0.500000000000000,  0.500000000000000 ]
    mass: 28.085500
    reduced_to: 1
  - symbol: Si # 9
    coordinates: [  0.125000000000000,  0.125000000000000,  0.125000000000000 ]
    mass: 28.085500
    reduced_to: 9
  - symbol: Si # 10
    coordinates: [  0.625000000000000,  0.125000000000000,  0.125000000000000 ]
    mass: 28.085500
    reduced_to: 9
  - symbol: Si # 11
    coordinates: [  0.125000000000000,  0.625000000000000,  0.125000000000000 ]
    mass: 28.085500
    reduced_to: 9
  - symbol: Si # 12
    coordinates: [  0.625000000000000,  0.625000000000000,  0.125000000000000 ]
    mass: 28.085500
    reduced_to: 9
  - symbol: Si # 13
    coordinates: [  0.125000000000000,  0.125000000000000,  0.625000000000000 ]
    mass: 28.085500
    reduced_to: 9
  - symbol: Si # 14
    coordinates: [  0.625000000000000,  0.125000000000000,  0.625000000000000 ]
    mass: 28.085500
    reduced_to: 9
  - symbol: Si # 15
    coordinates: [  0.125000000000000,  0.625000000000000,  0.625000000000000 ]
    mass: 28.085500
    reduced_to: 9
  - symbol: Si # 16
    coordinates: [  0.625000000000000,  0.625000000000000,  0.625000000000000 ]
    mass: 28.085500
    reduced_to: 9

displacements:
- atom:    1
  displacement:
    [  -0.0141421356237310,  0.0000000000000000,  0.0141421356237310 ]
